LAMMPS Description

10000 atoms

7 atom types
0 29.744417 xlo xhi
0 29.744417 ylo yhi
0 29.744417 zlo zhi

Masses

1 0.356818
2 0.40772
3 0.463247
4 0.523599
5 0.588977
6 0.659584
7 0.735619

PairIJ Coeffs

1 1  10 33 0.88 1.232
1 2  10 33 0.9 1.26
1 3  10 33 0.92 1.288
1 4  10 33 0.94 1.316
1 5  10 33 0.96 1.344
1 6  10 33 0.98 1.372
1 7  10 33 1 1.4
2 2  10 33 0.92 1.288
2 3  10 33 0.94 1.316
2 4  10 33 0.96 1.344
2 5  10 33 0.98 1.372
2 6  10 33 1 1.4
2 7  10 33 1.02 1.428
3 3  10 33 0.96 1.344
3 4  10 33 0.98 1.372
3 5  10 33 1 1.4
3 6  10 33 1.02 1.428
3 7  10 33 1.04 1.456
4 4  10 33 1 1.4
4 5  10 33 1.02 1.428
4 6  10 33 1.04 1.456
4 7  10 33 1.06 1.484
5 5  10 33 1.04 1.456
5 6  10 33 1.06 1.484
5 7  10 33 1.08 1.512
6 6  10 33 1.08 1.512
6 7  10 33 1.1 1.54
7 7  10 33 1.12 1.568

Atoms

1 4 9.47333 0.790836 24.2404
2 5 3.48539 22.8719 11.2942
3 3 1.20243 19.6762 24.3476
4 5 3.30875 26.7043 25.3838
5 3 25.8412 26.2072 7.34551
6 6 26.7679 1.06926 10.2625
7 5 11.7828 13.1793 13.8873
8 6 25.9154 2.48944 17.5674
9 3 25.83 9.08788 27.2395
10 4 25.386 19.5487 17.5819
11 4 21.7358 1.58173 19.5742
12 3 16.3582 11.9755 25.7037
13 4 11.3757 7.45295 26.3579
14 5 21.0331 21.5823 28.0066
15 6 2.65095 28.7258 12.5954
16 6 25.6737 18.0726 26.6945
17 3 4.37607 20.2339 2.94279
18 5 25.8 23.4289 28.5325
19 5 0.245698 16.2072 3.67235
20 3 27.4295 24.1751 26.8652
21 5 25.2156 29.5018 19.4006
22 2 26.1755 18.2791 24.9663
23 5 0.287209 12.6471 5.55475
24 6 3.29298 5.07619 25.5143
25 4 0.512432 22.0854 4.11699
26 3 14.9648 9.46583 13.3923
27 4 8.14555 15.4337 3.83298
28 5 23.8034 6.25091 23.9894
29 4 26.5786 28.6942 28.2818
30 3 11.1707 29.1503 3.08021
31 5 14.5613 0.0623201 28.1884
32 3 24.3683 27.2475 0.270271
33 3 4.34821 20.9626 7.87342
34 5 6.35173 19.7472 1.8694
35 5 24.4124 2.89935 14.7729
36 3 24.6461 29.1413 0.0465608
37 3 13.6315 6.3877 21.3703
38 5 20.3323 17.8218 27.3243
39 3 20.4385 17.4893 13.4339
40 2 21.5328 3.07809 29.0374
41 4 6.26745 27.0129 11.4415
42 4 26.3991 6.02753 7.90889
43 5 18.0199 12.9034 0.85318
44 3 29.1111 2.27761 6.33099
45 4 7.21149 8.26786 22.6912
46 5 27.3569 15.3316 3.99298
47 4 4.37819 13.8295 5.756
48 5 18.563 10.5447 25.4073
49 4 13.6504 22.2856 28.64
50 5 11.9342 17.8359 28.6355
51 4 8.63154 13.2164 6.14832
52 5 0.251142 8.81628 28.8904
53 5 9.58363 4.01304 4.14803
54 3 16.0861 17.5759 6.53105
55 3 1.50897 18.0874 22.2074
56 5 14.3855 11.328 26.3046
57 3 21.2519 25.4171 22.9801
58 2 28.0844 4.72832 18.9936
59 5 20.1358 19.7276 27.4578
60 6 23.9872 24.0662 12.3907
61 4 15.0576 13.9505 4.33288
62 5 8.64921 15.5538 5.45612
63 2 15.9599 18.7297 10.813
64 2 14.6155 14.9716 0.454296
65 3 6.70222 12.9739 2.76016
66 4 17.68 17.201 0.213292
67 5 17.5642 9.69142 12.5491
68 5 5.26058 17.9869 28.018
69 4 16.633 27.5706 17.5676
70 5 15.484 12.53 13.1888
71 5 15.0168 23.0031 19.158
72 5 20.6661 28.5169 11.5626
73 5 0.522309 11.8502 17.6813
74 3 12.9391 6.47171 21.7351
75 4 26.6359 15.0585 27.1038
76 3 20.0025 3.07739 12.6873
77 4 8.75728 0.35366 16.4728
78 7 2.88995 24.8682 4.51299
79 5 4.71854 8.08376 21.9208
80 7 0.138102 25.073 10.7148
81 4 27.5387 5.26682 0.0834827
82 4 16.1382 0.396278 3.89589
83 5 2.97872 23.8529 10.581
84 5 17.3676 6.1613 9.6202
85 5 12.6913 5.63297 16.9451
86 4 21.692 3.37643 11.2096
87 4 4.08406 10.4616 9.02284
88 4 28.0305 6.73091 17.1769
89 3 3.15778 24.4167 13.0769
90 5 6.62583 22.3697 22.0248
91 4 25.1945 21.3884 9.26603
92 4 9.81243 10.7722 28.804
93 6 28.5114 20.4665 22.6103
94 5 4.68792 7.81038 23.3895
95 4 15.5236 9.1376 11.3052
96 4 20.0358 24.1415 5.43355
97 5 24.1098 1.34879 13.8372
98 4 18.8972 12.4139 9.69204
99 3 14.7763 11.067 29.115
100 3 9.95219 19.6514 1.19202
101 7 22.7284 7.45068 12.9308
102 2 4.23545 21.6337 1.07546
103 3 1.31896 15.6052 21.826
104 4 21.6994 7.45319 7.05764
105 5 5.5958 9.68804 19.9794
106 3 5.0809 15.9162 26.2477
107 3 25.3424 22.1855 25.9514
108 2 1.54405 16.0273 21.3128
109 5 25.5399 21.9334 8.98324
110 4 25.2694 25.3582 20.3303
111 4 27.6803 12.8343 0.835325
112 2 7.28548 29.1712 4.73348
113 4 6.70899 26.6472 4.15701
114 5 11.4498 13.1367 2.15455
115 4 2.43339 2.60319 4.52693
116 3 1.9347 21.9572 9.08528
117 4 27.7374 8.84175 1.15755
118 3 6.54438 16.7172 21.0887
119 3 28.2 6.80211 16.0129
120 5 19.3561 1.31407 9.54059
121 2 15.1441 5.33597 6.77491
122 3 14.148 27.1651 8.10262
123 4 25.8845 20.0307 25.1431
124 4 16.3709 8.42587 20.7624
125 5 16.2228 16.2485 12.6495
126 7 17.0124 3.96437 16.4307
127 5 4.33429 14.6976 2.15892
128 5 5.74744 16.9217 19.0017
129 5 23.8721 4.14337 25.3825
130 3 13.9902 20.4636 19.1467
131 4 23.8286 5.26575 4.84318
132 4 12.7432 22.9533 15.7153
133 3 19.8154 6.96228 26.2579
134 2 27.3702 20.3074 28.797
135 4 26.3315 16.1564 7.13934
136 2 17.2048 18.8933 10.8509
137 2 22.7242 14.245 4.50987
138 5 14.5965 27.5878 9.78195
139 2 10.0998 13.3114 3.46339
140 4 28.3656 5.52402 9.39487
141 3 2.63748 29.3509 2.23239
142 4 29.4568 4.27651 18.4613
143 4 9.62944 12.1009 2.82869
144 4 27.6591 15.1961 7.2535
145 6 18.1095 15.3698 19.8419
146 4 12.3884 28.3127 18.4479
147 5 6.20399 7.70929 8.41783
148 4 29.27 13.1563 24.7465
149 5 24.2836 12.8859 26.7036
150 4 0.992386 21.0114 11.6464
151 4 16.3924 27.746 12.229
152 4 4.0009 5.13841 2.00041
153 5 10.3924 12.6963 21.1527
154 4 20.2345 16.4488 15.2481
155 5 19.6869 20.9963 27.5456
156 6 25.3186 28.7258 25.298
157 4 28.6084 7.18359 20.4415
158 4 15.5403 16.5114 22.283
159 5 1.981 8.4313 4.02149
160 4 23.1278 9.27952 0.255821
161 4 13.0609 14.4521 12.6112
162 5 0.644172 24.4702 9.06529
163 4 25.7023 6.49554 20.7003
164 5 10.1051 27.6201 24.2479
165 5 8.88698 21.8105 28.2266
166 3 25.1062 19.1419 1.29833
167 3 28.9918 7.02415 8.98823
168 2 9.70491 5.80009 2.195
169 6 3.74633 7.21128 26.8003
170 3 5.58139 4.85195 23.4919
171 7 27.1332 19.2642 28.2547
172 5 0.774404 27.9679 18.4
173 4 22.0048 16.8767 12.1175
174 3 1.41468 22.2317 21.2145
175 4 8.63463 4.61554 22.7393
176 4 20.7846 27.1484 21.7117
177 1 18.8392 3.15935 7.55123
178 4 27.0675 21.1867 26.1202
179 4 4.70361 5.19871 23.2664
180 5 5.84282 4.37753 8.00181
181 4 7.57991 12.3147 22.5367
182 4 22.1934 16.3694 26.2109
183 3 2.58002 23.293 1.87225
184 4 2.32446 28.7551 8.31462
185 3 19.6621 13.1072 23.1689
186 7 22.0971 14.245 3.85615
187 4 14.1752 22.6707 28.3141
188 5 28.1254 17.7797 4.60153
189 3 27.6833 4.65812 14.1249
190 4 10.1026 26.6724 28.4523
191 5 15.3305 28.5081 10.5327
192 3 8.13733 16.6508 15.8848
193 4 7.52185 6.70125 1.30274
194 4 0.839913 22.4886 1.39183
195 6 0.313319 16.729 8.135
196 4 0.607358 12.7872 24.6629
197 6 11.7483 5.88414 4.01787
198 4 12.1357 0.0915945 17.7848
199 3 6.45403 13.7733 16.8084
200 5 13.5079 28.5538 4.11895
201 4 26.591 19.7066 21.8848
202 4 22.196 3.01888 19.6137
203 5 18.5782 16.9675 15.9089
204 3 16.0254 4.34955 3.9526
205 3 26.5598 0.565921 2.84991
206 4 15.5089 25.9712 26.7427
207 5 26.7556 13.6496 17.1875
208 4 2.0923 19.6789 7.56481
209 5 19.5522 24.0007 23.7103
210 4 4.48431 4.75202 10.1159
211 2 16.0311 26.4391 1.29607
212 4 1.2125 28.7864 18.7494
213 5 10.6357 10.7661 25.945
214 4 20.2068 16.7823 11.0359
215 6 25.9189 16.4505 2.24415
216 5 2.62381 29.6622 13.4987
217 4 7.33041 10.2998 12.026
218 5 18.3863 26.3016 7.27628
219 3 0.12309 17.601 21.6702
220 4 22.7872 16.7434 7.70425
221 3 7.48579 28.077 17.8902
222 5 12.904 13.458 15.7577
223 4 14.7184 16.6965 12.2718
224 3 14.3939 2.36282 16.6289
225 2 18.4565 6.1831 15.6902
226 5 18.903 26.1065 26.7078
227 4 18.7032 25.4794 3.32858
228 3 20.9929 18.6779 13.1169
229 5 15.2689 22.6842 0.884395
230 4 2.39242 13.3279 11.243
231 5 10.8444 19.8669 4.25043
232 3 12.6322 18.1619 1.12654
233 4 15.2009 27.588 25.677
234 3 24.1811 24.1858 13.1152
235 3 10.4471 23.5213 2.12587
236 3 15.0092 11.3119 8.75545
237 3 25.046 0.219661 2.75025
238 4 10.974 12.8391 22.7514
239 4 9.57861 24.5628 19.3498
240 4 23.748 27.4703 15.9625
241 5 22.1159 19.0056 25.2459
242 3 10.4838 10.5319 25.6638
243 4 12.7782 10.7269 12.4542
244 3 9.81633 11.0479 12.0441
245 3 19.1686 2.45445 28.4927
246 3 21.9375 25.2237 17.3329
247 4 15.3683 8.76647 11.7515
248 5 27.1149 10.1188 3.5829
249 5 27.144 23.1294 17.2954
250 4 21.302 11.3835 23.4238
251 5 6.32326 1.80828 28.8134
252 3 14.3961 0.441926 11.2733
253 3 21.7014 8.78803 22.4992
254 4 17.5591 9.6972 15.0498
255 5 8.42465 23.7163 6.67479
256 4 2.92227 27.6794 11.3067
257 4 13.7094 27.7111 10.8732
258 4 28.7215 17.7931 11.2278
259 4 13.8822 22.9902 19.4436
260 4 4.97259 13.3203 16.2202
261 4 6.27354 29.3819 4.23146
262 3 5.51707 6.02486 9.837
263 4 7.42042 16.7294 0.0790645
264 3 1.59265 29.0799 8.89358
265 2 7.93532 22.8343 24.5558
266 5 27.7277 11.2975 9.6425
267 5 16.1534 11.7812 24.0185
268 5 2.40412 25.0551 4.17036
269 5 7.34667 13.0162 21.4551
270 4 7.07118 11.0489 6.43489
271 4 17.3104 24.585 22.8115
272 4 22.8431 26.1185 2.64394
273 3 3.97679 21.0032 3.48526
274 4 6.56551 6.13976 13.1529
275 3 19.7861 0.0807408 1.29318
276 6 20.1254 14.2521 12.4834
277 5 26.9512 10.6385 27.1158
278 3 14.5113 5.59414 14.3754
279 4 16.1557 1.99592 15.1815
280 5 3.55319 14.8052 9.8829
281 5 25.0945 19.8944 29.3267
282 6 6.87101 25.701 12.9971
283 4 27.9468 3.66581 17.3461
284 6 10.1506 4.11328 18.414
285 4 13.8852 13.1254 23.2437
286 5 15.0638 6.72947 27.7355
287 6 29.0545 7.10293 12.2104
288 3 11.7949 13.9277 24.5146
289 3 8.97636 4.97884 15.3714
290 4 1.3685 3.71115 7.93729
291 4 4.5443 8.49468 2.92452
292 4 15.2121 25.1658 27.1529
293 4 9.75126 12.6668 10.4113
294 3 8.64456 22.3583 10.8274
295 4 13.9766 9.50397 4.1798
296 5 15.2493 23.5211 2.63638
297 2 3.5636 16.9597 2.04818
298 4 12.3924 5.03856 29.6523
299 6 26.0879 17.007 26.1939
300 5 22.3197 5.61082 10.8887
301 5 27.5955 23.8326 13.7251
302 3 25.646 25.3534 13.5702
303 5 14.921 14.7567 25.2183
304 3 18.8715 1.43646 14.674
305 5 4.32142 16.9762 21.4675
306 4 13.7948 9.33428 29.6577
307 4 27.6933 23.5122 1.08211
308 5 16.7383 27.8105 3.08785
309 4 13.4187 13.5567 6.92708
310 4 0.813519 16.668 24.2145
311 5 8.56167 15.3646 28.2491
312 4 26.4756 23.1263 9.80372
313 5 1.21765 1.24851 17.264
314 5 27.4947 4.37 2.31928
315 4 6.83719 6.52215 7.89117
316 4 14.4648 21.7432 20.8591
317 4 8.5745 25.7107 10.1051
318 4 16.241 27.7663 28.1481
319 4 7.0805 26.4741 14.189
320 3 24.1402 8.26326 29.147
321 5 22.1353 14.6719 6.38293
322 4 15.7997 25.76 19.0517
323 5 6.59389 8.28521 21.4921
324 4 12.0309 2.33185 22.2289
325 5 8.16733 18.9744 4.03247
326 3 24.5208 19.5755 1.73679
327 4 10.6842 14.8839 12.1471
328 3 6.12611 2.51202 6.46578
329 4 8.49839 13.7623 0.112751
330 4 3.78351 8.36196 2.96601
331 3 4.07034 0.235116 4.46166
332 5 7.92722 6.32991 10.3258
333 4 6.43066 6.16851 2.0148
334 6 18.648 2.44124 12.7804
335 4 0.701234 17.468 12.7103
336 3 22.3118 15.9451 28.5183
337 4 8.82734 16.9176 9.16931
338 6 5.59063 13.219 7.2377
339 3 24.2401 6.26541 16.79
340 4 5.32243 22.5872 10.8724
341 5 10.6457 24.4282 5.22289
342 3 0.432772 5.35482 25.9251
343 4 0.984881 7.68392 23.3921
344 3 23.8763 4.73586 23.9073
345 5 24.3029 14.3059 0.828459
346 4 15.6987 1.68832 7.54731
347 3 12.336 1.90879 16.3272
348 4 5.35912 15.9148 7.42882
349 6 9.10638 3.27005 23.9137
350 5 24.9925 20.3158 28.369
351 4 12.1254 22.8834 14.2282
352 3 8.83903 24.6465 27.9395
353 2 20.8215 24.7801 23.8632
354 5 21.1077 27.4323 15.449
355 4 22.5119 14.0346 16.5952
356 2 6.58674 5.35028 3.14022
357 3 22.4875 27.0145 24.4194
358 4 0.230401 2.80512 8.64101
359 2 9.29794 10.9749 9.27941
360 2 22.9935 4.8732 3.27635
361 4 23.9876 6.48264 18.2718
362 5 1.93027 1.8031 9.8321
363 5 5.57821 5.01304 13.127
364 5 15.5172 12.2513 27.5861
365 5 18.43 27.5859 22.4286
366 4 1.6352 26.1503 29.3248
367 2 28.3229 19.139 27.0435
368 4 25.5839 27.6272 7.59165
369 3 11.6429 3.0396 19.92
370 4 1.56333 19.0169 28.8411
371 3 21.9622 11.8927 3.32286
372 4 3.64166 5.92883 17.3151
373 6 3.49408 23.5865 1.0303
374 3 24.8714 20.4136 27.5997
375 3 10.8786 14.7865 23.8232
376 1 12.4318 24.8076 1.81782
377 3 3.39252 23.2647 16.3
378 4 11.1035 16.955 28.6758
379 2 9.4693 13.9633 19.5714
380 5 15.3538 27.0321 26.8097
381 4 28.4793 0.960322 5.54659
382 2 8.19569 26.8642 12.5049
383 5 2.4531 2.87817 7.99953
384 5 3.21896 27.84 6.6204
385 4 17.7518 17.7023 13.5599
386 3 5.59477 3.99686 9.087
387 3 7.98466 4.92921 10.4042
388 3 16.3508 4.46487 14.4553
389 4 24.6061 0.975101 13.6451
390 6 0.666728 18.2301 28.5339
391 6 23.6987 0.793875 5.29674
392 3 28.0807 4.79045 12.4887
393 5 16.9987 18.5531 29.3045
394 3 18.2062 13.0455 8.84718
395 3 6.82793 15.3724 26.183
396 3 28.8335 11.1594 10.7864
397 4 0.807351 1.0685 1.31209
398 3 20.8112 4.09902 23.5938
399 2 10.6408 24.1012 20.9678
400 4 16.5367 11.8982 11.5048
401 5 2.70513 4.11108 6.50355
402 5 18.5452 5.91842 8.02066
403 5 27.2625 6.88768 18.0323
404 4 13.1377 26.2126 12.7464
405 4 17.6421 29.1306 4.95359
406 6 9.73731 29.7028 19.5633
407 4 27.6958 9.22269 21.7127
408 4 7.48584 4.98 27.0728
409 5 7.03739 4.10138 21.5186
410 4 3.24612 20.2133 19.9009
411 5 22.4221 22.7204 1.0303
412 5 21.5573 2.71359 19.4272
413 5 25.2443 4.29708 11.1898
414 3 14.0353 24.1111 27.5417
415 4 14.4501 24.6418 10.5387
416 5 25.7639 4.30673 12.1266
417 4 12.7707 10.3793 1.32088
418 4 3.48892 16.1668 27.4849
419 5 20.6618 21.2462 6.50321
420 5 18.3543 24.6067 24.4597
421 5 0.461432 22.6973 27.7056
422 5 22.4391 4.03315 8.75547
423 4 8.76506 8.27179 20.3679
424 4 29.0803 4.99539 24.8045
425 3 3.45631 10.4435 22.0055
426 5 21.425 18.4978 5.70849
427 4 11.8378 14.6328 9.43822
428 4 7.56362 27.7612 22.4114
429 5 21.186 12.5682 24.2983
430 3 14.5869 24.6444 15.3835
431 2 20.6922 2.63095 8.22101
432 4 15.0036 23.3768 11.8086
433 5 25.6261 19.6955 9.31233
434 5 18.0844 28.6141 3.07698
435 3 26.4648 27.2411 9.06486
436 4 9.31121 12.0885 10.6391
437 3 14.0159 2.45646 16.7053
438 5 25.5507 4.41777 4.54296
439 4 14.5187 5.37964 2.35438
440 4 23.623 6.12029 3.30095
441 5 18.4483 0.201137 15.5007
442 2 29.5138 19.9501 7.88565
443 5 10.1119 13.1307 14.9731
444 4 8.92324 22.28 25.3473
445 6 25.0368 26.4132 27.7026
446 3 0.273059 0.669982 19.1552
447 5 2.41096 20.4417 3.85828
448 4 13.2106 29.2726 9.64658
449 4 0.0364771 28.4852 9.4145
450 3 28.5091 1.57678 22.4813
451 4 1.73101 24.0456 23.6671
452 3 1.46146 20.5537 10.7142
453 5 13.295 4.28296 11.3901
454 3 17.7107 14.8306 19.2958
455 4 21.1199 5.48221 7.46046
456 4 12.0201 22.7016 9.00603
457 3 6.2754 16.0415 22.8911
458 4 27.6608 0.139445 7.19118
459 4 11.1397 17.9245 29.2034
460 4 1.67872 1.37111 28.5711
461 5 11.216 24.5718 1.9224
462 4 17.7368 26.4111 6.11899
463 6 28.9699 7.73971 23.5634
464 4 10.2989 26.6401 10.4379
465 6 9.90017 20.8357 22.4367
466 3 9.48982 25.7534 16.1844
467 4 6.56742 16.1347 15.3925
468 3 21.7291 18.076 4.21398
469 4 7.33978 17.9189 12.7275
470 5 2.49511 9.83829 14.9927
471 4 3.40391 12.1671 8.7088
472 4 17.164 0.692148 12.3321
473 3 15.0293 20.7347 2.75791
474 4 3.27729 21.1258 29.3793
475 4 9.32498 22.3795 20.7858
476 6 25.6367 8.65099 0.289968
477 5 7.76546 10.3305 21.167
478 4 14.5655 18.6433 10.0563
479 5 13.7809 4.45708 20.2294
480 6 21.7059 21.8298 6.84612
481 5 18.3498 21.3554 5.09566
482 5 2.51844 17.9697 29.3295
483 4 5.36388 5.36503 28.5131
484 5 9.10919 0.0031389 3.83947
485 5 25.9106 9.46401 19.1963
486 4 20.0918 21.737 5.1658
487 7 24.232 2.02158 13.0453
488 2 29.682 28.2885 24.0237
489 4 14.3718 13.6295 8.74898
490 5 0.891668 12.5038 4.32883
491 4 26.9198 15.0416 12.7801
492 3 13.5769 17.7414 5.12788
493 4 17.6332 21.6114 10.9896
494 3 16.8634 23.3744 15.2176
495 2 17.5828 20.2448 21.7816
496 5 14.2972 0.982908 25.2716
497 3 18.9161 25.5434 11.9027
498 3 12.7703 8.31653 10.7675
499 5 0.881831 18.8851 18.7213
500 4 11.6958 22.464 0.275858
501 5 19.5442 2.02265 28.3631
502 5 7.78515 12.8558 20.7269
503 6 9.52842 28.5412 3.84559
504 4 24.8946 5.78753 11.4537
505 4 26.9533 8.92022 28.2373
506 4 22.7541 19.4012 2.08803
507 5 28.136 4.35207 13.1207
508 5 11.9599 28.409 20.8288
509 4 10.4772 17.4764 20.1388
510 5 26.2065 12.8855 29.5066
511 3 7.45013 17.5671 9.04704
512 5 4.98157 18.8208 24.7528
513 5 16.0075 28.4667 5.57589
514 4 28.9978 2.37576 15.7913
515 3 3.52059 9.17811 28.563
516 5 27.3427 28.8604 28.5856
517 4 24.149 28.5197 26.7904
518 4 27.0187 26.2771 1.86887
519 5 28.5868 14.7182 4.36177
520 5 12.5248 26.522 23.2709
521 4 16.7821 9.11234 20.4097
522 4 14.6141 7.70715 0.463436
523 3 26.5274 18.0047 28.6357
524 6 3.52665 8.79803 20.064
525 4 15.7161 25.5657 18.0498
526 4 17.7693 28.7201 8.14288
527 7 13.647 0.396237 0.379639
528 3 17.6169 24.3534 15.5994
529 4 2.08076 3.26428 2.54346
530 4 24.2845 12.0628 27.3027
531 3 8.76392 2.16173 16.062
532 3 5.94883 5.89876 8.82239
533 4 12.8599 12.5696 5.04635
534 5 15.5886 18.125 10.331
535 3 25.6965 28.1258 11.144
536 4 22.1983 3.47439 20.3633
537 5 28.5533 7.20934 10.3493
538 6 1.70593 1.16823 15.1819
539 4 27.0381 21.0647 3.07073
540 5 9.10826 17.5089 11.2274
541 5 24.8615 18.2486 26.0407
542 2 13.3094 3.10356 8.72821
543 4 12.9011 7.52913 10.7427
544 4 8.82257 29.6804 5.31511
545 4 8.03776 21.4727 5.42193
546 5 13.5231 12.471 6.09933
547 3 14.9227 17.6762 17.0231
548 4 8.68197 13.2529 1.85224
549 3 24.1804 0.214761 11.2224
550 5 0.767028 28.2471 14.8952
551 5 14.564 16.3634 2.89619
552 5 7.37722 25.5569 9.07789
553 4 1.26387 23.9429 3.15705
554 5 19.8474 1.28045 18.6109
555 4 22.3385 21.2104 21.2362
556 3 14.3622 13.0447 7.56587
557 3 25.3341 7.93211 3.23452
558 3 20.529 17.1464 25.6101
559 6 3.46343 2.29776 27.1483
560 4 21.852 12.2698 3.05479
561 4 5.70932 7.51081 27.1462
562 3 11.0306 9.62814 27.3474
563 5 5.81876 5.94162 24.4118
564 5 28.0934 15.0558 20.5286
565 3 1.71748 3.26209 1.5554
566 4 16.8436 5.22409 1.43272
567 4 17.3021 10.1101 3.90773
568 5 22.3666 18.1129 4.73159
569 5 19.198 12.5291 17.4355
570 3 4.0844 24.376 7.88848
571 5 17.1621 5.72347 3.79549
572 3 6.02498 26.9872 24.9205
573 4 13.0936 15.3514 21.5309
574 3 29.671 26.7936 29.2699
575 4 2.15231 20.6407 16.6876
576 3 23.4645 8.52516 5.02013
577 3 18.9873 27.4757 22.558
578 5 16.0691 4.54669 0.396547
579 4 18.9041 12.8923 2.83219
580 7 12.6664 5.44767 15.7033
581 5 24.041 14.1734 25.5154
582 4 10.1745 12.8651 14.2282
583 2 12.5636 14.1112 6.77264
584 6 3.34488 15.7862 11.9048
585 3 11.4179 14.7281 6.80122
586 3 2.25177 1.34877 20.2221
587 3 23.4423 14.0791 15.0466
588 5 22.6001 22.0575 12.8157
589 3 6.89651 21.7819 16.776
590 6 17.0429 1.16077 0.185574
591 4 7.85325 2.76665 18.9252
592 5 14.5871 22.7986 21.8571
593 3 6.1297 28.8757 1.23215
594 5 9.26931 5.07351 0.231851
595 4 6.57091 9.5801 9.49022
596 5 3.3725 12.3051 2.23063
597 4 23.085 15.3405 20.2002
598 4 2.31621 19.6484 14.4531
599 5 21.3021 22.427 15.3044
600 4 22.7758 0.821305 24.9073
601 2 4.33025 28.3055 13.0258
602 5 17.3508 23.0855 20.3327
603 4 24.0778 28.5798 14.5035
604 4 7.78438 0.767218 4.61974
605 5 16.2164 0.806951 23.2901
606 3 15.8813 29.0065 14.9493
607 4 11.9229 9.79851 22.5241
608 6 2.1422 23.1704 1.33664
609 3 16.6108 7.2157 19.3643
610 4 5.42069 12.9468 20.801
611 3 14.9068 8.08988 18.0823
612 4 19.2488 8.87589 25.1946
613 4 2.08249 24.9159 11.3595
614 4 23.4866 25.2936 12.2564
615 2 25.735 2.39603 15.8988
616 4 10.0532 28.5253 21.1517
617 4 14.5933 9.05962 29.1247
618 6 23.6967 27.7483 25.8071
619 2 1.08503 23.9079 28.139
620 3 9.8963 9.80383 21.4498
621 4 11.5639 19.9649 10.4796
622 4 16.6391 7.56508 5.51822
623 3 26.6884 11.5488 27.3361
624 5 7.39466 4.93186 27.8613
625 5 27.616 7.31834 14.7882
626 4 17.0091 26.0867 15.5357
627 4 12.7459 18.1151 5.16412
628 4 26.8026 15.7423 3.23866
629 4 7.27997 4.61646 24.5481
630 4 20.3614 23.4404 19.1371
631 4 27.0868 26.6911 24.0502
632 4 11.8497 4.16032 17.5173
633 4 17.2999 5.42732 5.91307
634 4 22.7521 15.3915 25.7673
635 4 26.2761 15.551 20.5764
636 4 20.3209 23.739 1.11073
637 3 1.57309 10.2557 17.2025
638 2 26.0377 22.3607 29.1067
639 4 17.6555 28.3746 1.87647
640 2 15.8571 12.6022 2.35793
641 5 16.3721 1.25485 14.9776
642 3 18.5453 0.127868 4.75985
643 5 17.4809 3.53628 16.6335
644 6 25.6348 8.36802 4.55469
645 6 21.4039 25.6825 21.5017
646 2 4.91325 4.97867 12.765
647 3 0.729631 8.33121 1.11624
648 4 1.70435 21.8654 24.4854
649 4 28.8552 17.9563 6.7993
650 5 1.53566 26.8106 23.4846
651 3 26.4417 19.1694 0.285132
652 2 2.49158 9.4003 1.94861
653 4 10.9792 10.332 7.58539
654 4 13.2717 6.97874 24.9532
655 5 22.6839 8.53959 24.6795
656 6 16.439 21.3918 3.10603
657 5 21.9289 17.859 9.37465
658 4 2.04248 8.6651 12.1711
659 3 0.266737 25.1036 25.6474
660 3 26.9126 17.1269 12.2014
661 4 12.9652 18.2827 22.0947
662 3 9.36615 22.8075 13.8863
663 4 11.3676 7.26517 22.7404
664 3 25.7738 5.63059 27.9311
665 4 19.2916 11.76 19.2807
666 2 2.36905 7.86383 3.61156
667 5 10.0333 0.104088 1.04414
668 4 0.320622 9.55578 29.6392
669 4 11.9095 28.0339 5.6395
670 4 11.3239 19.2132 25.0582
671 4 10.0633 14.1079 13.5902
672 3 11.2469 15.4569 28.3542
673 5 17.7706 7.1156 3.61422
674 3 19.8612 19.5619 21.0754
675 3 11.8464 21.5639 28.7983
676 4 4.61261 10.4724 16.5763
677 6 9.98559 27.7367 0.743276
678 4 1.41369 4.78815 9.81687
679 4 23.7223 19.5365 7.14743
680 2 14.4221 20.2184 15.441
681 6 12.5448 28.5572 6.3955
682 3 18.3917 16.1066 9.2179
683 1 19.1677 20.2887 3.02917
684 5 25.7601 25.0187 3.72574
685 3 4.06945 27.5226 11.1517
686 3 11.7165 22.2165 22.8473
687 3 22.2697 14.3655 10.0415
688 3 13.2587 1.49213 3.61393
689 3 12.5408 17.2873 9.64948
690 2 2.29548 1.77855 16.9104
691 4 6.79685 6.04517 8.91955
692 3 19.4998 14.0978 19.0543
693 6 4.14085 10.4263 10.9653
694 3 5.56911 16.5243 16.493
695 5 14.4739 28.3911 21.4382
696 6 9.38077 4.25513 18.0138
697 2 5.23987 11.1274 12.0353
698 3 22.0858 18.2808 24.7305
699 4 2.32416 22.4046 27.419
700 4 10.341 9.59827 18.3796
701 5 29.3307 26.1531 9.13773
702 4 25.3155 10.9694 1.13661
703 6 14.0214 23.5535 5.77658
704 4 5.51578 29.4681 13.6006
705 4 14.9614 23.2715 29.7224
706 6 5.37662 28.3182 25.0448
707 5 28.441 7.13879 27.3666
708 4 23.4385 10.4493 17.5627
709 3 19.9334 6.91895 19.3221
710 4 15.3231 22.507 6.26196
711 4 24.1725 28.2617 4.377
712 5 5.649 24.8909 10.2618
713 4 1.37381 27.2587 12.2487
714 5 25.933 26.9904 6.42079
715 3 12.6869 21.6602 21.3539
716 3 21.6754 8.99175 22.0503
717 4 19.7593 1.21508 22.5604
718 4 29.5868 4.78194 20.2225
719 4 7.52585 19.2921 20.2847
720 4 21.1537 28.4607 27.1617
721 3 3.47231 21.867 2.2045
722 6 18.5547 13.5556 21.3595
723 4 28.3443 25.4951 24.7041
724 4 23.9717 14.99 12.0698
725 3 14.8912 19.0994 28.8353
726 5 18.5629 19.2298 7.67967
727 5 16.0074 26.3438 13.3956
728 4 23.6181 12.6772 7.5258
729 4 25.0635 23.1006 3.2402
730 4 15.6595 21.7744 22.757
731 5 16.2327 5.03558 27.5042
732 3 9.2107 6.24655 25.045
733 3 19.5964 10.2082 8.85506
734 2 6.61461 18.8677 20.027
735 5 3.54675 28.8 16.8406
736 5 21.0746 3.39064 3.21357
737 2 2.62749 14.2441 28.3803
738 2 8.45447 18.9645 17.233
739 3 3.56968 21.2531 7.21285
740 4 19.4251 24.6357 17.2981
741 5 18.6593 9.43688 27.118
742 5 1.11714 0.678747 29.3734
743 6 26.5183 27.5811 6.99718
744 4 10.4378 4.50791 6.82194
745 3 19.7165 29.617 25.4084
746 3 15.8827 19.3944 27.2164
747 5 16.9044 19.2756 8.95458
748 4 14.8065 1.94568 19.7913
749 3 18.4333 17.6215 22.3371
750 4 5.33654 11.8023 26.4156
751 2 22.961 25.6181 17.9302
752 4 0.984946 0.379761 0.761939
753 3 28.438 18.0166 1.38927
754 3 18.3069 19.6512 11.1764
755 5 5.50261 19.199 17.6746
756 2 2.86593 2.39106 20.1931
757 5 16.1974 9.47314 14.44
758 4 6.82216 3.5753 27.3634
759 4 29.427 28.2149 8.96304
760 4 14.9258 14.8699 25.3949
761 3 29.0675 17.8094 0.879514
762 4 6.90256 29.3369 19.0973
763 4 3.95068 2.51926 28.6939
764 4 28.6496 3.64085 27.4319
765 6 26.1477 22.1462 19.5872
766 2 25.9328 12.6832 25.6089
767 5 16.7247 14.2532 29.5577
768 3 15.9334 26.4726 29.4764
769 5 16.3886 11.267 3.03516
770 4 19.3216 11.2744 10.5988
771 3 17.1137 21.9776 2.5715
772 4 9.95024 5.48863 27.589
773 7 11.465 20.0345 16.3234
774 3 17.4301 1.15782 12.3362
775 3 16.5288 7.9021 3.04541
776 4 9.84581 18.0487 24.7634
777 2 13.2786 22.8243 4.6794
778 4 17.6584 3.34335 9.59239
779 3 27.0831 9.49519 27.2383
780 3 24.4024 26.6473 22.2925
781 4 25.012 3.7469 11.4122
782 4 13.9673 10.1094 10.6046
783 6 13.9714 26.9439 20.2633
784 3 28.283 11.8449 10.8206
785 5 21.0463 17.7782 21.4115
786 4 5.736 13.4612 12.2111
787 3 18.641 7.72531 7.33616
788 4 24.4622 29.7165 15.338
789 3 23.8962 23.7289 21.0602
790 5 7.48689 0.606242 10.1739
791 7 13.9346 25.5466 28.4401
792 4 13.8915 15.4772 16.3336
793 3 22.3824 8.00121 15.2687
794 4 7.7262 16.7691 23.8388
795 4 4.5033 10.3787 18.5574
796 4 16.2028 7.94595 13.389
797 4 15.5711 29.4734 8.44459
798 4 8.54334 12.2063 12.2364
799 4 14.9804 5.6984 7.41455
800 4 21.7535 11.4123 19.8868
801 3 5.76566 12.1097 21.2949
802 5 23.3593 7.70652 22.484
803 4 26.5891 23.9261 20.0094
804 4 4.63465 7.21944 21.7371
805 3 15.5584 6.57823 12.811
806 4 25.6685 21.0217 6.40387
807 2 8.27504 22.1313 10.2165
808 3 13.6733 12.7244 19.2614
809 2 2.05025 25.2732 1.45574
810 4 18.0803 11.3735 25.8752
811 3 3.93931 13.4129 23.6838
812 3 0.733676 18.4975 21.2784
813 3 12.8242 13.6937 8.40861
814 6 13.6948 16.8972 25.1825
815 3 4.99042 26.7871 8.16009
816 3 25.8631 24.0533 16.5537
817 5 5.25671 1.69292 16.2853
818 5 23.1649 27.8856 20.9152
819 3 4.71271 7.97703 22.1171
820 3 9.35138 26.7994 2.6695
821 5 6.62093 28.6638 7.42603
822 4 3.55783 17.4628 6.03403
823 2 24.5187 21.7827 23.3828
824 4 23.59 11.6145 0.839211
825 5 27.9106 8.75214 10.528
826 6 10.9138 25.4565 24.7432
827 4 26.537 28.9986 28.2951
828 5 12.6109 12.0339 28.4494
829 3 10.1313 8.10282 12.4908
830 4 5.07002 3.86866 5.41618
831 3 14.4866 16.2057 11.4602
832 5 20.812 25.5674 25.2513
833 4 11.6241 14.1149 8.94433
834 4 20.4783 27.4452 5.56515
835 6 11.2027 18.3057 23.6253
836 3 7.74311 6.19336 17.7735
837 4 23.8719 3.66569 5.44229
838 2 25.5293 2.69209 22.0058
839 3 27.621 29.3512 27.7161
840 4 2.69677 18.1455 25.2164
841 3 4.3135 25.928 8.28856
842 5 4.55237 25.3652 11.5449
843 3 5.71331 27.5061 29.5549
844 4 2.74583 6.96229 10.3913
845 3 29.0917 14.4256 6.3504
846 4 3.0093 17.0168 8.10318
847 2 26.273 19.1587 7.93218
848 4 19.309 8.5403 15.6884
849 3 26.095 10.9648 0.976635
850 5 14.7685 20.834 26.649
851 3 1.01214 17.3359 16.6562
852 3 13.7345 12.5624 5.07207
853 5 13.7983 9.33856 23.7142
854 5 4.15717 23.1577 29.1075
855 3 16.6201 27.3088 22.6288
856 5 10.2882 1.10314 9.27776
857 4 11.6208 2.36941 10.3511
858 5 19.4316 0.0510578 18.7572
859 5 25.4055 1.17667 26.2907
860 4 9.0733 16.6371 5.34445
861 3 12.2881 5.55908 5.30229
862 5 22.7047 24.5447 24.3174
863 3 28.2742 8.57251 23.1196
864 5 14.9163 2.48827 13.106
865 3 12.8022 3.54858 11.8222
866 5 12.8225 4.33732 0.780839
867 5 19.2205 12.046 26.9752
868 4 13.1603 25.2045 25.7264
869 4 22.873 20.209 27.8814
870 3 18.199 6.26868 6.20662
871 2 21.4339 9.35311 28.1301
872 5 24.8308 19.6135 14.1054
873 3 9.70671 10.271 14.4047
874 3 24.235 16.1519 7.84107
875 4 1.34451 7.67229 20.4848
876 5 10.7529 11.0567 20.0872
877 4 5.57845 27.7462 10.3782
878 4 8.5424 25.8545 24.2889
879 4 14.2349 26.7933 26.4269
880 5 15.7428 23.4651 2.45745
881 4 7.84485 21.8268 12.1152
882 4 9.32651 22.3241 1.05137
883 5 15.0977 11.0883 10.8488
884 4 17.3786 23.9376 22.651
885 3 16.2604 2.26182 17.9666
886 5 23.4442 21.3009 8.88663
887 4 14.9644 3.97478 7.10296
888 5 10.2359 16.0871 11.9669
889 4 21.6226 14.3822 6.05993
890 4 19.7577 25.0427 22.6994
891 3 28.6315 19.0827 6.05083
892 2 11.688 29.6068 8.32873
893 3 13.2982 15.9851 20.9419
894 4 23.2346 5.09501 18.6681
895 3 24.3591 2.59 24.5607
896 4 11.6449 17.6304 18.6521
897 3 28.1394 16.4698 6.31331
898 6 15.9163 20.9989 28.9057
899 5 27.3829 16.3454 23.4587
900 4 18.2343 1.33284 2.27633
901 6 28.6977 15.9969 8.55501
902 5 9.13539 10.7013 15.6365
903 5 11.2535 1.11491 11.7915
904 2 10.2272 28.2465 0.198954
905 3 21.959 13.7107 23.7864
906 5 20.4827 22.0816 6.02379
907 2 18.8461 21.2972 7.51499
908 4 4.1208 26.95 3.38038
909 5 12.7133 22.5931 2.88268
910 6 22.6859 19.3858 25.6056
911 4 7.22424 27.081 23.5773
912 4 27.9931 13.8279 7.83399
913 5 23.4861 22.2172 27.3617
914 5 12.4542 2.23043 24.8419
915 4 2.88153 18.4403 23.2025
916 2 16.0242 12.3766 22.3708
917 3 25.8509 28.2315 5.59762
918 4 5.52304 1.35946 15.7005
919 5 5.27417 20.0221 19.3677
920 4 19.2757 5.62321 18.6977
921 3 29.38 9.47903 22.9706
922 4 3.48827 13.7325 28.2662
923 5 13.2851 29.6408 9.64031
924 4 2.96889 13.895 13.8142
925 3 20.5986 14.7792 13.1468
926 5 13.5395 7.09776 16.3214
927 5 8.79538 8.69979 25.4713
928 4 25.7842 4.25022 24.2021
929 2 16.734 16.6316 26.0313
930 4 1.34821 29.1307 20.8645
931 3 11.3626 24.7915 2.91389
932 1 13.0255 28.0889 0.730621
933 3 28.3724 10.2989 23.7021
934 4 9.52847 15.9872 13.8154
935 2 0.0557502 20.2803 19.3756
936 6 13.7223 26.4135 19.3906
937 3 9.25384 15.1961 16.713
938 4 15.5209 29.6994 16.4526
939 5 15.039 8.41802 14.3544
940 4 21.6085 0.0318979 20.7368
941 4 5.98739 19.6197 3.42793
942 4 1.00292 20.8484 12.3465
943 5 9.50768 21.2883 7.22589
944 3 26.745 24.8172 28.2745
945 4 2.99358 24.2911 22.3069
946 4 6.78785 11.3056 16.5292
947 3 9.39654 11.2554 15.9543
948 4 14.9577 14.2395 5.60932
949 4 17.0417 13.0944 8.24372
950 3 11.2947 16.2859 9.15944
951 5 4.73734 28.2931 28.451
952 5 25.2421 21.2447 28.4778
953 7 4.17516 19.0764 28.1466
954 3 20.7867 17.0203 5.73186
955 3 17.7829 25.9687 4.05455
956 4 21.6635 10.6001 4.39963
957 4 28.8214 12.7148 0.468045
958 4 16.3196 12.9835 23.1929
959 6 15.9945 17.1383 13.6453
960 5 8.05918 20.5488 13.9029
961 4 16.3185 24.2252 17.7062
962 4 14.9293 14.2423 10.4324
963 3 1.54297 16.947 16.107
964 4 10.9682 13.4494 10.798
965 3 16.0081 0.19032 28.5779
966 5 14.8279 24.7696 3.58302
967 5 1.23202 1.88417 26.4381
968 5 10.7956 24.3914 25.1157
969 4 15.1221 28.8119 15.8922
970 4 10.8923 14.0738 24.1866
971 5 23.1464 19.5299 9.21361
972 4 27.3141 15.2765 16.6034
973 3 7.65695 22.0792 0.33033
974 3 5.08136 4.68557 12.4496
975 3 7.80997 7.12366 23.7485
976 3 13.4828 15.3828 10.578
977 6 13.3978 5.16454 19.6722
978 3 0.298402 10.5075 28.1342
979 4 2.85246 21.6466 19.8625
980 3 28.7772 5.60765 16.1497
981 2 21.8181 6.61491 26.2235
982 5 27.8551 3.05154 28.0203
983 3 8.96298 21.6506 24.5446
984 4 1.19491 24.8143 10.6079